# Region          : all region0
# Cells           : 7500
# Volume          : 2.6000000000e-01
# Time            	average(p)
0.0175012         	1.6542348965e+05
0.0175026         	1.6542304748e+05
0.0175044         	1.6542295018e+05
0.0175064         	1.6542297331e+05
0.0175089         	1.6542303309e+05
0.0175119         	1.6542309451e+05
0.0175155         	1.6542312432e+05
0.0175198         	1.6542308829e+05
0.017525          	1.6542292695e+05
0.0175312         	1.6542255824e+05
0.0175386         	1.6542187368e+05
0.0175475         	1.6542061371e+05
0.0175582         	1.6541776960e+05
0.0175711         	1.6541286953e+05
0.0175865         	1.6540466882e+05
0.0176049         	1.6539123623e+05
0.0176271         	1.6536981712e+05
0.0176537         	1.6533729336e+05
0.0176859         	1.6529128892e+05
0.0177244         	1.6523254156e+05
0.01777           	1.6516441352e+05
0.0178218         	1.6509058058e+05
0.0178749         	1.6501832195e+05
0.0179255         	1.6495230198e+05
0.0179738         	1.6489157814e+05
0.0180198         	1.6483451957e+05
0.0180648         	1.6477849644e+05
0.0181088         	1.6472285896e+05
0.0181528         	1.6466664653e+05
0.0181968         	1.6460981645e+05
0.0182397         	1.6455256745e+05
0.0182826         	1.6449292137e+05
0.0183256         	1.6443107668e+05
0.0183674         	1.6436916171e+05
0.0184093         	1.6430512214e+05
0.0184512         	1.6423876315e+05
0.018493          	1.6416999995e+05
0.0185349         	1.6409855872e+05
0.0185767         	1.6402414840e+05
0.0186174         	1.6394912195e+05
0.0186581         	1.6387091392e+05
0.0186987         	1.6378967153e+05
0.0187394         	1.6370531333e+05
0.0187801         	1.6361777300e+05
0.0188207         	1.6352718076e+05
0.0188614         	1.6343340916e+05
0.0189007         	1.6334005646e+05
0.0189399         	1.6324335812e+05
0.0189792         	1.6314362921e+05
0.0190184         	1.6304081684e+05
0.0190577         	1.6293494276e+05
0.019097          	1.6282577479e+05
0.0191362         	1.6271331568e+05
0.0191755         	1.6259738575e+05
0.0192148         	1.6247810148e+05
0.019254          	1.6235576009e+05
0.0192933         	1.6223035299e+05
0.0193325         	1.6210137381e+05
0.0193718         	1.6196911149e+05
0.0194111         	1.6183363395e+05
0.0194503         	1.6169492864e+05
0.0194926         	1.6154011753e+05
0.0195349         	1.6138129457e+05
0.0195772         	1.6122259327e+05
0.0196195         	1.6107293980e+05
0.0196617         	1.6094561606e+05
0.019704          	1.6084590963e+05
0.0197463         	1.6076725069e+05
0.0197886         	1.6070135728e+05
0.0198309         	1.6064145750e+05
0.0198732         	1.6058582322e+05
0.0199154         	1.6053393198e+05
0.0199577         	1.6048620239e+05
0.02              	1.6044291785e+05
0.0200424         	1.6040462852e+05
0.0200847         	1.6037241722e+05
0.0201271         	1.6034700055e+05
0.0201695         	1.6032866858e+05
0.0202126         	1.6031815615e+05
0.0202558         	1.6031716257e+05
0.020299          	1.6032697707e+05
0.0203421         	1.6034849950e+05
0.0203853         	1.6038279225e+05
0.0204284         	1.6043103929e+05
0.0204716         	1.6049379019e+05
0.0205148         	1.6057193129e+05
0.0205579         	1.6066596418e+05
0.020602          	1.6077854775e+05
0.0206462         	1.6090871725e+05
0.0206903         	1.6105681949e+05
0.0207345         	1.6122306873e+05
0.0207786         	1.6140780378e+05
0.0208227         	1.6161099041e+05
0.0208669         	1.6183287070e+05
0.020911          	1.6207309618e+05
0.0209552         	1.6233140327e+05
0.0209993         	1.6260796709e+05
0.0210434         	1.6290446871e+05
0.0210876         	1.6322194378e+05
0.0211317         	1.6356128535e+05
0.0211758         	1.6392319788e+05
0.02122           	1.6430883468e+05
0.0212641         	1.6471979040e+05
0.0213083         	1.6515165922e+05
0.0213524         	1.6560168640e+05
0.0213965         	1.6607458229e+05
0.0214407         	1.6656693660e+05
0.0214848         	1.6707510333e+05
0.021529          	1.6759926160e+05
0.0215731         	1.6814318061e+05
0.0216172         	1.6870771384e+05
0.0216614         	1.6929087110e+05
0.0217055         	1.6989144679e+05
0.0217496         	1.7051522822e+05
0.0217938         	1.7115357164e+05
0.0218379         	1.7180375121e+05
0.0218821         	1.7246303647e+05
0.0219262         	1.7313048329e+05
0.0219703         	1.7380056667e+05
0.0220145         	1.7447269294e+05
0.0220586         	1.7515494851e+05
0.0221028         	1.7584970077e+05
0.0221469         	1.7654795536e+05
0.022191          	1.7725204102e+05
0.0222352         	1.7794934077e+05
0.0222793         	1.7863474911e+05
0.0223234         	1.7931161716e+05
0.0223676         	1.7997989685e+05
0.0224117         	1.8064124715e+05
0.0224559         	1.8129180741e+05
0.0225            	1.8194307179e+05
0.0225424         	1.8257591134e+05
0.0225847         	1.8320465539e+05
0.0226271         	1.8382972067e+05
0.0226695         	1.8445091926e+05
0.0227111         	1.8505925665e+05
0.0227527         	1.8566008186e+05
0.0227943         	1.8625060897e+05
0.022836          	1.8683038900e+05
0.0228768         	1.8738960683e+05
0.0229184         	1.8795888435e+05
0.0229601         	1.8852449938e+05
0.0230017         	1.8909267680e+05
0.0230433         	1.8965783686e+05
0.0230849         	1.9022098586e+05
0.0231266         	1.9077903145e+05
0.0231682         	1.9133005882e+05
0.0232098         	1.9187627659e+05
0.0232515         	1.9241801884e+05
0.0232931         	1.9294627175e+05
0.0233347         	1.9347154292e+05
0.0233764         	1.9399032292e+05
0.023418          	1.9450131363e+05
0.0234608         	1.9501424844e+05
0.0235035         	1.9551861073e+05
0.0235463         	1.9601134967e+05
0.023589          	1.9650369244e+05
0.0236318         	1.9698387727e+05
0.0236745         	1.9745412463e+05
0.0237173         	1.9791822052e+05
0.0237615         	1.9840122191e+05
0.0238058         	1.9888536255e+05
0.02385           	1.9936501217e+05
0.0238942         	1.9983718510e+05
0.0239385         	2.0030544059e+05
0.0239827         	2.0076700327e+05
0.0240289         	2.0123270105e+05
0.0240752         	2.0168482034e+05
0.0241214         	2.0212542473e+05
0.0241676         	2.0255311145e+05
0.0242139         	2.0297710265e+05
0.0242601         	2.0339603007e+05
0.0243064         	2.0380503667e+05
0.0243526         	2.0420372719e+05
0.0244024         	2.0461428197e+05
0.0244484         	2.0498335506e+05
0.0244985         	2.0537121379e+05
0.0245487         	2.0573760092e+05
0.0245988         	2.0609232329e+05
0.024649          	2.0643552087e+05
0.0246991         	2.0676027548e+05
0.0247493         	2.0707456063e+05
0.0247994         	2.0738211262e+05
0.0248496         	2.0767133580e+05
0.0248997         	2.0793742887e+05
0.0249499         	2.0818790996e+05
0.025             	2.0842267892e+05
0.0250481         	2.0864420593e+05
0.0250962         	2.0884732964e+05
0.0251442         	2.0903120409e+05
0.0251923         	2.0920604953e+05
0.0252414         	2.0937179093e+05
0.0252905         	2.0952930930e+05
0.0253385         	2.0967770624e+05
0.0253866         	2.0981669253e+05
0.0254346         	2.0994305466e+05
0.0254826         	2.1006136347e+05
0.0255307         	2.1017017143e+05
0.0255776         	2.1026328836e+05
0.0256244         	2.1034249391e+05
0.0256713         	2.1041001232e+05
0.0257182         	2.1046693416e+05
0.0257651         	2.1051779259e+05
0.0258108         	2.1056678651e+05
0.0258564         	2.1060957790e+05
0.0259021         	2.1064657282e+05
0.0259477         	2.1067744955e+05
0.0259934         	2.1070260063e+05
0.026039          	2.1072185293e+05
0.0260847         	2.1073917273e+05
0.0261304         	2.1074923587e+05
0.0261745         	2.1075290202e+05
0.0262187         	2.1075283558e+05
0.0262629         	2.1074894108e+05
0.0263071         	2.1074157921e+05
0.0263513         	2.1073150947e+05
0.0263954         	2.1071748954e+05
0.0264396         	2.1070233009e+05
0.0264838         	2.1068559567e+05
0.026528          	2.1066844691e+05
0.0265722         	2.1065131210e+05
0.0266164         	2.1063356187e+05
0.0266605         	2.1061578170e+05
0.0267047         	2.1059896668e+05
0.0267489         	2.1058372125e+05
0.0267931         	2.1057082891e+05
0.0268373         	2.1056086714e+05
0.0268814         	2.1055065789e+05
0.0269256         	2.1053912442e+05
0.0269698         	2.1052765165e+05
0.027014          	2.1051627556e+05
0.0270582         	2.1050673581e+05
0.0271024         	2.1049932561e+05
0.0271465         	2.1049396515e+05
0.0271907         	2.1048727283e+05
0.0272349         	2.1048081172e+05
0.0272791         	2.1047405454e+05
0.0273233         	2.1046676481e+05
0.0273675         	2.1045904770e+05
0.0274116         	2.1045250973e+05
0.0274558         	2.1044654509e+05
0.0275            	2.1043861744e+05
0.0275391         	2.1043402544e+05
0.0275781         	2.1042804433e+05
0.0276178         	2.1041919197e+05
0.0276575         	2.1041098091e+05
0.0276972         	2.1040212819e+05
0.0277363         	2.1039363393e+05
0.0277753         	2.1038722524e+05
0.0278137         	2.1038001259e+05
0.027852          	2.1037424564e+05
0.0278897         	2.1036809160e+05
0.0279274         	2.1036437368e+05
0.0279644         	2.1036339459e+05
0.0280014         	2.1036388429e+05
0.0280384         	2.1036254082e+05
0.0280747         	2.1036294284e+05
0.0281111         	2.1036859348e+05
0.0281474         	2.1037746723e+05
0.0281837         	2.1038842447e+05
0.02822           	2.1040394279e+05
0.0282556         	2.1042450947e+05
0.0282912         	2.1044909050e+05
0.0283268         	2.1047789334e+05
0.0283624         	2.1050786600e+05
0.028398          	2.1054004069e+05
0.0284329         	2.1057902717e+05
0.0284677         	2.1062194735e+05
0.0285017         	2.1066785038e+05
0.0285358         	2.1071646926e+05
0.0285691         	2.1076766651e+05
0.0286023         	2.1082188507e+05
0.0286356         	2.1087910797e+05
0.0286689         	2.1093864838e+05
0.0287014         	2.1100062647e+05
0.028733          	2.1106379070e+05
0.0287647         	2.1112714424e+05
0.0287956         	2.1119499455e+05
0.0288265         	2.1126424756e+05
0.0288574         	2.1133432564e+05
0.0288874         	2.1140369507e+05
0.0289175         	2.1147417856e+05
0.0289476         	2.1154657658e+05
0.0289768         	2.1161944531e+05
0.029006          	2.1169293315e+05
0.0290336         	2.1176559424e+05
0.0290613         	2.1183903110e+05
0.0290889         	2.1191153006e+05
0.0291157         	2.1198205931e+05
0.0291425         	2.1205046712e+05
0.0291684         	2.1211789312e+05
0.0291953         	2.1218509346e+05
0.0292212         	2.1224974204e+05
0.0292472         	2.1231386096e+05
0.0292723         	2.1237636833e+05
0.0292974         	2.1243691619e+05
0.0293225         	2.1249635974e+05
0.0293476         	2.1255261821e+05
0.0293727         	2.1260758555e+05
0.0293968         	2.1266051986e+05
0.0294209         	2.1271261080e+05
0.029445          	2.1276258769e+05
0.0294692         	2.1281054450e+05
0.0294933         	2.1285752046e+05
0.0295174         	2.1290312807e+05
0.0295416         	2.1294731505e+05
0.029567          	2.1298860044e+05
0.0295925         	2.1302498723e+05
0.029618          	2.1305813855e+05
0.0296418         	2.1309055524e+05
0.0296657         	2.1312074989e+05
0.0296896         	2.1314743302e+05
0.0297135         	2.1317115800e+05
0.0297395         	2.1318900380e+05
0.0297632         	2.1320546726e+05
0.0297869         	2.1321696946e+05
0.0298106         	2.1322609976e+05
0.0298342         	2.1323262085e+05
0.0298579         	2.1323560855e+05
0.0298816         	2.1323517065e+05
0.0299053         	2.1323184964e+05
0.029929          	2.1322497340e+05
0.0299526         	2.1321543545e+05
0.0299763         	2.1320219650e+05
0.03              	2.1318548435e+05
0.030024          	2.1316531446e+05
0.0300483         	2.1314153014e+05
0.0300728         	2.1311361222e+05
0.0300973         	2.1308236639e+05
0.0301216         	2.1304992484e+05
0.0301456         	2.1301461376e+05
0.0301697         	2.1297685391e+05
0.0301937         	2.1293767453e+05
0.030218          	2.1289458846e+05
0.0302425         	2.1284673656e+05
0.0302668         	2.1279643227e+05
0.0302908         	2.1274376520e+05
0.0303148         	2.1268830441e+05
0.0303391         	2.1262956763e+05
0.0303634         	2.1256822604e+05
0.0303879         	2.1250476472e+05
0.0304125         	2.1243892303e+05
0.030437          	2.1237045323e+05
0.0304613         	2.1229994952e+05
0.0304856         	2.1222616128e+05
0.0305096         	2.1215055168e+05
0.0305335         	2.1207296855e+05
0.0305575         	2.1199330284e+05
0.0305815         	2.1191113796e+05
0.0306058         	2.1182477298e+05
0.0306304         	2.1173437407e+05
0.030655          	2.1164326370e+05
0.0306793         	2.1155377213e+05
0.0307032         	2.1146481561e+05
0.0307275         	2.1137117178e+05
0.0307521         	2.1127332584e+05
0.0307767         	2.1117305319e+05
0.030801          	2.1107224376e+05
0.0308253         	2.1096927352e+05
0.0308496         	2.1086365834e+05
0.0308735         	2.1075728847e+05
0.0308974         	2.1064898718e+05
0.0309213         	2.1053932113e+05
0.0309452         	2.1042777926e+05
0.0309695         	2.1031113726e+05
0.0309934         	2.1019595740e+05
0.0310177         	2.1007773927e+05
0.031042          	2.0995817815e+05
0.0310663         	2.0983834831e+05
0.0310906         	2.0971747508e+05
0.0311149         	2.0959472746e+05
0.0311392         	2.0947151884e+05
0.0311635         	2.0934678888e+05
0.0311878         	2.0922089195e+05
0.0312121         	2.0909437299e+05
0.0312364         	2.0896664441e+05
0.0312612         	2.0883480642e+05
0.031286          	2.0870114795e+05
0.0313103         	2.0856942539e+05
0.0313345         	2.0843591109e+05
0.0313583         	2.0830442116e+05
0.0313821         	2.0817185202e+05
0.0314059         	2.0804001610e+05
0.0314302         	2.0790355416e+05
0.0314545         	2.0776615362e+05
0.0314783         	2.0763184405e+05
0.031502          	2.0749723759e+05
0.0315258         	2.0736191116e+05
0.0315496         	2.0722607710e+05
0.0315733         	2.0708999169e+05
0.0315971         	2.0695358645e+05
0.0316209         	2.0681694051e+05
0.0316453         	2.0667382456e+05
0.031669          	2.0653465723e+05
0.0316928         	2.0639436212e+05
0.0317158         	2.0625919698e+05
0.0317389         	2.0612450233e+05
0.0317619         	2.0599093075e+05
0.031785          	2.0585780780e+05
0.0318081         	2.0572482761e+05
0.0318319         	2.0558551109e+05
0.031855          	2.0545160323e+05
0.0318789         	2.0530985706e+05
0.0319019         	2.0517453488e+05
0.0319258         	2.0503268336e+05
0.0319497         	2.0489099043e+05
0.0319736         	2.0474852855e+05
0.0319976         	2.0460662199e+05
0.0320204         	2.0447437254e+05
0.0320444         	2.0433330892e+05
0.0320672         	2.0419988862e+05
0.0320899         	2.0406663623e+05
0.0321127         	2.0393435689e+05
0.0321355         	2.0380182118e+05
0.0321583         	2.0366829769e+05
0.0321811         	2.0353438719e+05
0.0322039         	2.0340101419e+05
0.0322266         	2.0326809209e+05
0.0322494         	2.0313625216e+05
0.0322722         	2.0300535459e+05
0.032295          	2.0287562052e+05
0.0323178         	2.0274686649e+05
0.0323405         	2.0261803074e+05
0.0323633         	2.0248963778e+05
0.0323861         	2.0236095485e+05
0.0324089         	2.0223239211e+05
0.0324317         	2.0210403593e+05
0.0324544         	2.0197653447e+05
0.0324772         	2.0185010345e+05
0.0325            	2.0172418866e+05
0.0325225         	2.0160045410e+05
0.032545          	2.0147741139e+05
0.0325676         	2.0135548301e+05
0.0325901         	2.0123378119e+05
0.0326126         	2.0111213048e+05
0.0326351         	2.0099083978e+05
0.0326574         	2.0087088476e+05
0.03268           	2.0074922354e+05
0.0327025         	2.0062794943e+05
0.0327248         	2.0050885676e+05
0.0327471         	2.0039025100e+05
0.0327694         	2.0027231918e+05
0.0327917         	2.0015506712e+05
0.032814          	2.0003739098e+05
0.0328361         	1.9992180039e+05
0.0328577         	1.9980964468e+05
0.0328794         	1.9969868889e+05
0.032901          	1.9958839820e+05
0.0329227         	1.9947764520e+05
0.0329443         	1.9936682101e+05
0.0329659         	1.9925701615e+05
0.0329873         	1.9914992186e+05
0.033009          	1.9904271047e+05
0.0330306         	1.9893664015e+05
0.0330525         	1.9882902468e+05
0.0330742         	1.9872303454e+05
0.033096          	1.9861527816e+05
0.0331177         	1.9850981797e+05
0.0331393         	1.9840513085e+05
0.0331607         	1.9830292412e+05
0.0331823         	1.9819961917e+05
0.033204          	1.9809585368e+05
0.0332254         	1.9799468406e+05
0.0332465         	1.9789622140e+05
0.0332676         	1.9779930933e+05
0.0332887         	1.9770399473e+05
0.0333099         	1.9760900438e+05
0.033331          	1.9751434273e+05
0.0333521         	1.9742091393e+05
0.0333735         	1.9732657454e+05
0.0333949         	1.9723212724e+05
0.0334163         	1.9713719160e+05
0.0334377         	1.9704155210e+05
0.0334588         	1.9694758844e+05
0.0334799         	1.9685380461e+05
0.0335008         	1.9676195333e+05
0.0335216         	1.9667138860e+05
0.0335427         	1.9658021976e+05
0.0335641         	1.9648830563e+05
0.0335856         	1.9639664529e+05
0.0336067         	1.9630740112e+05
0.0336278         	1.9621895199e+05
0.0336489         	1.9613120538e+05
0.03367           	1.9604341255e+05
0.0336911         	1.9595666776e+05
0.0337122         	1.9587055896e+05
0.0337333         	1.9578559826e+05
0.0337545         	1.9570210201e+05
0.0337756         	1.9561902491e+05
0.0337967         	1.9553665878e+05
0.0338178         	1.9545465295e+05
0.0338389         	1.9537290705e+05
0.03386           	1.9529150123e+05
0.0338811         	1.9521044742e+05
0.0339022         	1.9512884510e+05
0.0339229         	1.9505021090e+05
0.0339441         	1.9496992753e+05
0.0339652         	1.9489035315e+05
0.0339863         	1.9481101710e+05
0.0340074         	1.9473150463e+05
0.0340285         	1.9465173627e+05
0.0340497         	1.9457165823e+05
0.0340708         	1.9449239708e+05
0.0340914         	1.9441578757e+05
0.0341121         	1.9433871023e+05
0.0341327         	1.9426189448e+05
0.0341534         	1.9418524952e+05
0.034174          	1.9410902957e+05
0.0341947         	1.9403260854e+05
0.0342153         	1.9395599147e+05
0.034236          	1.9387896933e+05
0.0342566         	1.9380224075e+05
0.0342773         	1.9372583965e+05
0.0342979         	1.9364990713e+05
0.0343186         	1.9357455496e+05
0.0343392         	1.9349986558e+05
0.0343599         	1.9342513557e+05
0.0343805         	1.9335036416e+05
0.0344012         	1.9327546473e+05
0.0344218         	1.9319991223e+05
0.0344425         	1.9312434840e+05
0.0344631         	1.9304840882e+05
0.0344838         	1.9297242810e+05
0.0345044         	1.9289647034e+05
0.0345251         	1.9282030610e+05
0.0345457         	1.9274380670e+05
0.0345664         	1.9266698748e+05
0.034587          	1.9259066393e+05
0.0346077         	1.9251435259e+05
0.0346283         	1.9243730734e+05
0.034649          	1.9235956741e+05
0.0346696         	1.9228044334e+05
0.0346903         	1.9220147053e+05
0.0347109         	1.9212184285e+05
0.0347316         	1.9204277136e+05
0.0347522         	1.9196301246e+05
0.0347729         	1.9188258294e+05
0.0347935         	1.9180129882e+05
0.0348142         	1.9171886462e+05
0.0348348         	1.9163576842e+05
0.0348555         	1.9155221996e+05
0.0348761         	1.9146849273e+05
0.0348968         	1.9138473473e+05
0.0349174         	1.9130071085e+05
0.0349381         	1.9121701129e+05
0.0349587         	1.9113188274e+05
0.0349794         	1.9104610763e+05
0.035             	1.9095947283e+05
0.0350202         	1.9087448314e+05
0.0350407         	1.9078703945e+05
0.0350612         	1.9069851439e+05
0.0350815         	1.9061045074e+05
0.0351018         	1.9052200077e+05
0.0351221         	1.9043273939e+05
0.0351424         	1.9034253802e+05
0.0351629         	1.9024976041e+05
0.0351834         	1.9015653200e+05
0.0352041         	1.9006147060e+05
0.0352248         	1.8996549476e+05
0.0352455         	1.8986884471e+05
0.0352662         	1.8977100834e+05
0.0352871         	1.8967025751e+05
0.0353077         	1.8956946162e+05
0.0353284         	1.8946577854e+05
0.0353489         	1.8936255008e+05
0.0353692         	1.8925946710e+05
0.0353895         	1.8915659870e+05
0.0354098         	1.8905293858e+05
0.0354301         	1.8894863860e+05
0.0354504         	1.8884403488e+05
0.0354707         	1.8873905310e+05
0.035491          	1.8863323001e+05
0.0355113         	1.8852583064e+05
0.0355318         	1.8841470152e+05
0.035552          	1.8830430508e+05
0.0355723         	1.8819209148e+05
0.0355928         	1.8807803165e+05
0.0356131         	1.8796497148e+05
0.0356334         	1.8785104360e+05
0.0356537         	1.8773626687e+05
0.0356738         	1.8762194395e+05
0.0356938         	1.8750603406e+05
0.0357139         	1.8738871685e+05
0.035734          	1.8727008024e+05
0.0357543         	1.8714882890e+05
0.0357746         	1.8702618499e+05
0.0357949         	1.8690259188e+05
0.0358152         	1.8677683726e+05
0.0358355         	1.8665041227e+05
0.0358555         	1.8652455077e+05
0.0358756         	1.8639830527e+05
0.0358956         	1.8627018887e+05
0.0359157         	1.8614146433e+05
0.0359355         	1.8601384585e+05
0.0359553         	1.8588608402e+05
0.0359751         	1.8575814457e+05
0.0359952         	1.8562740809e+05
0.0360152         	1.8549603777e+05
0.0360353         	1.8536328853e+05
0.0360551         	1.8523119380e+05
0.0360749         	1.8509709036e+05
0.0360947         	1.8496215371e+05
0.0361145         	1.8482678793e+05
0.0361343         	1.8469076685e+05
0.0361544         	1.8455192319e+05
0.0361744         	1.8441332880e+05
0.0361945         	1.8427329657e+05
0.0362146         	1.8413265967e+05
0.0362347         	1.8399014801e+05
0.0362548         	1.8384734158e+05
0.0362745         	1.8370620773e+05
0.0362943         	1.8356485674e+05
0.0363141         	1.8342246496e+05
0.0363338         	1.8328024933e+05
0.0363536         	1.8313765680e+05
0.0363734         	1.8299457015e+05
0.0363928         	1.8285389557e+05
0.0364122         	1.8271234599e+05
0.0364316         	1.8257054167e+05
0.0364511         	1.8242811265e+05
0.0364705         	1.8228539031e+05
0.0364899         	1.8214147603e+05
0.0365093         	1.8199687375e+05
0.0365288         	1.8185102199e+05
0.0365482         	1.8170506834e+05
0.0365676         	1.8155902078e+05
0.036587          	1.8141280387e+05
0.0366065         	1.8126649005e+05
0.0366259         	1.8111953309e+05
0.0366453         	1.8097191530e+05
0.0366647         	1.8082344010e+05
0.0366842         	1.8067386801e+05
0.0367036         	1.8052408937e+05
0.036723          	1.8037406749e+05
0.036742          	1.8022780275e+05
0.0367609         	1.8008143950e+05
0.0367804         	1.7993068714e+05
0.0367993         	1.7978352921e+05
0.0368182         	1.7963615617e+05
0.0368372         	1.7948858225e+05
0.0368561         	1.7934119994e+05
0.0368756         	1.7918875066e+05
0.0368945         	1.7904078945e+05
0.0369141         	1.7888708528e+05
0.036933          	1.7873846343e+05
0.0369519         	1.7858978816e+05
0.0369708         	1.7844143183e+05
0.0369897         	1.7829349201e+05
0.0370086         	1.7814508842e+05
0.0370275         	1.7799669476e+05
0.0370472         	1.7784149300e+05
0.0370669         	1.7768571337e+05
0.0370865         	1.7752907154e+05
0.0371062         	1.7737162881e+05
0.037125          	1.7722231949e+05
0.0371437         	1.7707288046e+05
0.0371625         	1.7692317343e+05
0.0371823         	1.7676379004e+05
0.0372022         	1.7660418003e+05
0.0372208         	1.7645519040e+05
0.0372394         	1.7630635008e+05
0.037258          	1.7615757258e+05
0.0372766         	1.7600867264e+05
0.0372953         	1.7585964939e+05
0.0373139         	1.7571075024e+05
0.0373325         	1.7556267893e+05
0.0373511         	1.7541501050e+05
0.0373697         	1.7526732003e+05
0.0373883         	1.7512019190e+05
0.0374069         	1.7497255468e+05
0.0374255         	1.7482401546e+05
0.0374442         	1.7467525239e+05
0.0374628         	1.7452686606e+05
0.0374814         	1.7437927121e+05
0.0375            	1.7423211223e+05
0.0375194         	1.7407751766e+05
0.0375386         	1.7392471923e+05
0.0375575         	1.7377412808e+05
0.0375765         	1.7362323166e+05
0.0375954         	1.7347221442e+05
0.0376143         	1.7332123301e+05
0.0376334         	1.7316894396e+05
0.0376525         	1.7301718109e+05
0.0376714         	1.7286754429e+05
0.0376904         	1.7271806469e+05
0.0377092         	1.7256984504e+05
0.0377279         	1.7242125514e+05
0.0377467         	1.7227260417e+05
0.0377655         	1.7212407761e+05
0.0377841         	1.7197724440e+05
0.0378029         	1.7182921783e+05
0.0378217         	1.7168194230e+05
0.0378404         	1.7153489995e+05
0.0378592         	1.7138752998e+05
0.037878          	1.7123997901e+05
0.0378968         	1.7109238772e+05
0.0379156         	1.7094465578e+05
0.0379343         	1.7079718393e+05
0.0379531         	1.7064994677e+05
0.0379719         	1.7050216558e+05
0.0379907         	1.7035470396e+05
0.0380095         	1.7020726581e+05
0.0380282         	1.7005974281e+05
0.038047          	1.6991213337e+05
0.0380658         	1.6976470521e+05
0.0380846         	1.6961747516e+05
0.0381033         	1.6946935245e+05
0.0381221         	1.6932134428e+05
0.0381407         	1.6917469451e+05
0.0381593         	1.6902820919e+05
0.0381779         	1.6888186776e+05
0.0381965         	1.6873615997e+05
0.0382151         	1.6859084292e+05
0.0382337         	1.6844485319e+05
0.0382523         	1.6829932575e+05
0.0382709         	1.6815405294e+05
0.0382895         	1.6800852904e+05
0.0383081         	1.6786287917e+05
0.0383264         	1.6771933892e+05
0.038345          	1.6757463533e+05
0.0383636         	1.6742977554e+05
0.0383822         	1.6728489256e+05
0.0384008         	1.6713995471e+05
0.0384194         	1.6699579301e+05
0.038438          	1.6685219314e+05
0.0384566         	1.6670871700e+05
0.038475          	1.6656755914e+05
0.0384934         	1.6642614557e+05
0.0385117         	1.6628505059e+05
0.0385301         	1.6614432463e+05
0.0385485         	1.6600365568e+05
0.0385669         	1.6586316541e+05
0.0385852         	1.6572326578e+05
0.0386036         	1.6558365608e+05
0.038622          	1.6544409679e+05
0.0386403         	1.6530472821e+05
0.0386587         	1.6516584089e+05
0.0386771         	1.6502692525e+05
0.0386955         	1.6488801050e+05
0.0387138         	1.6474957253e+05
0.0387322         	1.6461100081e+05
0.0387506         	1.6447292944e+05
0.038769          	1.6433499897e+05
0.0387873         	1.6419696782e+05
0.0388054         	1.6406144672e+05
0.0388238         	1.6392431043e+05
0.0388422         	1.6378742225e+05
0.0388606         	1.6365025906e+05
0.0388789         	1.6351282898e+05
0.0388973         	1.6337498863e+05
0.0389157         	1.6323677389e+05
0.0389341         	1.6309859011e+05
0.0389525         	1.6296024570e+05
0.0389708         	1.6282195279e+05
0.0389892         	1.6268360823e+05
0.0390076         	1.6254564378e+05
0.039026          	1.6240837634e+05
0.0390443         	1.6227124951e+05
0.0390627         	1.6213431740e+05
0.0390811         	1.6199727059e+05
0.0390995         	1.6186043554e+05
0.0391179         	1.6172409411e+05
0.0391362         	1.6158771747e+05
0.0391546         	1.6145108853e+05
0.039173          	1.6131466998e+05
0.0391914         	1.6117849385e+05
0.0392097         	1.6104217647e+05
0.0392281         	1.6090628209e+05
0.0392465         	1.6077054771e+05
0.0392649         	1.6063460290e+05
0.0392833         	1.6049852719e+05
0.0393016         	1.6036281968e+05
0.03932           	1.6022676461e+05
0.0393384         	1.6009066340e+05
0.0393568         	1.5995443203e+05
0.0393752         	1.5981806619e+05
0.0393935         	1.5968166051e+05
0.0394119         	1.5954540554e+05
0.0394303         	1.5940900703e+05
0.0394487         	1.5927213639e+05
0.0394664         	1.5913990487e+05
0.0394848         	1.5900203019e+05
0.0395026         	1.5886850604e+05
0.039521          	1.5872909849e+05
0.0395395         	1.5858946733e+05
0.0395579         	1.5844972811e+05
0.0395763         	1.5831011996e+05
0.0395947         	1.5817036396e+05
0.0396131         	1.5803085862e+05
0.0396316         	1.5789140457e+05
0.03965           	1.5775178609e+05
0.0396684         	1.5761234435e+05
0.0396868         	1.5747255233e+05
0.0397053         	1.5733263913e+05
0.0397237         	1.5719254680e+05
0.0397421         	1.5705200092e+05
0.0397605         	1.5691131679e+05
0.0397789         	1.5677027477e+05
0.0397974         	1.5662956865e+05
0.0398158         	1.5648838222e+05
0.0398342         	1.5634665866e+05
0.0398526         	1.5620491440e+05
0.039871          	1.5606239715e+05
0.0398895         	1.5591931913e+05
0.0399079         	1.5577564324e+05
0.0399263         	1.5563169228e+05
0.0399447         	1.5548744716e+05
0.0399632         	1.5534296012e+05
0.0399816         	1.5519807330e+05
0.04              	1.5505268542e+05
0.0400177         	1.5491296047e+05
0.0400356         	1.5477207530e+05
0.0400534         	1.5463082349e+05
0.0400712         	1.5449099875e+05
0.0400889         	1.5435130421e+05
0.0401066         	1.5421139521e+05
0.0401245         	1.5407004448e+05
0.0401425         	1.5392703792e+05
0.0401605         	1.5378375478e+05
0.0401785         	1.5364006731e+05
0.0401965         	1.5349598341e+05
0.0402143         	1.5335298211e+05
0.0402322         	1.5321010299e+05
0.04025           	1.5306669795e+05
0.040268          	1.5292153171e+05
0.040286          	1.5277624426e+05
0.040304          	1.5263046937e+05
0.0403219         	1.5248611029e+05
0.0403396         	1.5234298228e+05