# Region          : all region0
# Cells           : 7500
# Volume          : 2.6000000000e-01
# Time            	average(p)
1.20019e-06       	1.0000416713e+05
2.64042e-06       	1.0001038626e+05
4.3687e-06        	1.0001784309e+05
6.44321e-06       	1.0002659148e+05
8.93179e-06       	1.0003678962e+05
1.19187e-05       	1.0004861955e+05
1.55038e-05       	1.0006225568e+05
1.98022e-05       	1.0007784350e+05
2.49586e-05       	1.0009552901e+05
3.11462e-05       	1.0011542201e+05
3.85602e-05       	1.0013753249e+05
4.74462e-05       	1.0016182837e+05
5.81095e-05       	1.0018821816e+05
7.08943e-05       	1.0021646766e+05
8.62684e-05       	1.0024636940e+05
0.000104694       	1.0027749757e+05
0.000126873       	1.0031050890e+05
0.000153537       	1.0034420840e+05
0.000184411       	1.0037681487e+05
0.000219496       	1.0040806064e+05
0.000258815       	1.0043846638e+05
0.00030276        	1.0046901385e+05
0.000345843       	1.0049564055e+05
0.000388081       	1.0051993450e+05
0.000425794       	1.0054064173e+05
0.000459798       	1.0055868005e+05
0.000491676       	1.0057537181e+05
0.000522573       	1.0059154373e+05
0.00055347        	1.0060779424e+05
0.000584866       	1.0062443828e+05
0.000616262       	1.0064115086e+05
0.000647657       	1.0065789093e+05
0.000679053       	1.0067477300e+05
0.000709916       	1.0069159738e+05
0.00074078        	1.0070867757e+05
0.000771643       	1.0072596659e+05
0.000802507       	1.0074335373e+05
0.00083337        	1.0076077996e+05
0.000864234       	1.0077819352e+05
0.000895098       	1.0079557930e+05
0.000924818       	1.0081227208e+05
0.000954538       	1.0082893402e+05
0.000984259       	1.0084557180e+05
0.00101398        	1.0086217331e+05
0.00104312        	1.0087841259e+05
0.00107225        	1.0089459291e+05
0.00110139        	1.0091067506e+05
0.00112994        	1.0092627340e+05
0.00115848        	1.0094170555e+05
0.00118643        	1.0095667818e+05
0.00121437        	1.0097154354e+05
0.00124232        	1.0098628096e+05
0.00127027        	1.0100086712e+05
0.00129822        	1.0101527973e+05
0.00132617        	1.0102952118e+05
0.00135412        	1.0104354947e+05
0.00138207        	1.0105739584e+05
0.00141073        	1.0107137012e+05
0.0014394         	1.0108512486e+05
0.00146806        	1.0109865684e+05
0.00149673        	1.0111191726e+05
0.00152623        	1.0112527866e+05
0.00155574        	1.0113832211e+05
0.0015862         	1.0115146154e+05
0.00161666        	1.0116425388e+05
0.00164712        	1.0117668194e+05
0.00167871        	1.0118915966e+05
0.0017103         	1.0120127620e+05
0.00174189        	1.0121298869e+05
0.00177485        	1.0122477831e+05
0.00180781        	1.0123613496e+05
0.00184077        	1.0124706492e+05
0.00187373        	1.0125754176e+05
0.00190669        	1.0126757448e+05
0.00193965        	1.0127713764e+05
0.00197262        	1.0128627144e+05
0.00200558        	1.0129496503e+05
0.00203854        	1.0130320491e+05
0.0020715         	1.0131096213e+05
0.00210446        	1.0131824048e+05
0.00213742        	1.0132503499e+05
0.00217039        	1.0133134207e+05
0.00220335        	1.0133717358e+05
0.00223631        	1.0134255288e+05
0.00226927        	1.0134745780e+05
0.00230223        	1.0135189634e+05
0.00233519        	1.0135589846e+05
0.00236815        	1.0135949130e+05
0.00240112        	1.0136265505e+05
0.00243408        	1.0136538522e+05
0.00246704        	1.0136769521e+05
0.0025            	1.0136959339e+05
0.00253247        	1.0137107108e+05
0.00256537        	1.0137221076e+05
0.00259827        	1.0137299663e+05
0.00263072        	1.0137343380e+05
0.00266318        	1.0137352641e+05
0.00269564        	1.0137327956e+05
0.00272809        	1.0137273401e+05
0.00276055        	1.0137191985e+05
0.002793          	1.0137085969e+05
0.00282546        	1.0136956073e+05
0.00285792        	1.0136803313e+05
0.00289037        	1.0136629482e+05
0.00292283        	1.0136438137e+05
0.0029558         	1.0136226504e+05
0.00298877        	1.0135998525e+05
0.00302229        	1.0135750453e+05
0.00305639        	1.0135483870e+05
0.00309049        	1.0135204431e+05
0.0031252         	1.0134907229e+05
0.00316058        	1.0134591827e+05
0.00319595        	1.0134265350e+05
0.00323133        	1.0133929394e+05
0.00326742        	1.0133578112e+05
0.00330352        	1.0133219798e+05
0.00333961        	1.0132855894e+05
0.00337571        	1.0132488251e+05
0.00341262        	1.0132108301e+05
0.00344954        	1.0131725205e+05
0.00348645        	1.0131341578e+05
0.00352429        	1.0130949241e+05
0.00356213        	1.0130559309e+05
0.00359997        	1.0130176318e+05
0.00363781        	1.0129799700e+05
0.00367565        	1.0129430326e+05
0.0037146         	1.0129061002e+05
0.00375355        	1.0128704747e+05
0.0037925         	1.0128361789e+05
0.00383145        	1.0128033370e+05
0.00387041        	1.0127720770e+05
0.00390936        	1.0127426359e+05
0.00394975        	1.0127143087e+05
0.00399014        	1.0126883935e+05
0.00403054        	1.0126649682e+05
0.00407093        	1.0126442646e+05
0.00411133        	1.0126263784e+05
0.00415172        	1.0126115155e+05
0.00419212        	1.0126000205e+05
0.00423251        	1.0125919049e+05
0.0042729         	1.0125872072e+05
0.0043133         	1.0125861205e+05
0.00435369        	1.0125887840e+05
0.00439409        	1.0125953591e+05
0.00443196        	1.0126051892e+05
0.00446983        	1.0126188296e+05
0.0045077         	1.0126362586e+05
0.00454557        	1.0126576612e+05
0.00458343        	1.0126831685e+05
0.0046213         	1.0127128001e+05
0.00465917        	1.0127465739e+05
0.00469704        	1.0127845953e+05
0.00473491        	1.0128270180e+05
0.00477278        	1.0128738048e+05
0.00481065        	1.0129251731e+05
0.00484852        	1.0129812351e+05
0.00488639        	1.0130419599e+05
0.00492426        	1.0131076421e+05
0.00496213        	1.0131783172e+05
0.005             	1.0132540348e+05
0.00503676        	1.0133324276e+05
0.00507353        	1.0134157134e+05
0.00510975        	1.0135026160e+05
0.00514596        	1.0135943728e+05
0.00518218        	1.0136911025e+05
0.00521839        	1.0137928914e+05
0.00525461        	1.0138997829e+05
0.00529083        	1.0140118290e+05
0.00532704        	1.0141291285e+05
0.00536326        	1.0142516569e+05
0.00539947        	1.0143795364e+05
0.00543569        	1.0145129115e+05
0.00547191        	1.0146518340e+05
0.00550812        	1.0147963115e+05
0.00554434        	1.0149463473e+05
0.00558055        	1.0151020312e+05
0.00561677        	1.0152634216e+05
0.00565299        	1.0154306250e+05
0.0056892         	1.0156037212e+05
0.00572542        	1.0157827180e+05
0.00576091        	1.0159640896e+05
0.0057964         	1.0161513916e+05
0.00583189        	1.0163447442e+05
0.00586738        	1.0165442151e+05
0.00590288        	1.0167498178e+05
0.00593837        	1.0169617576e+05
0.00597386        	1.0171801462e+05
0.00600935        	1.0174050793e+05
0.00604402        	1.0176312015e+05
0.00607868        	1.0178637169e+05
0.00611335        	1.0181026937e+05
0.00614802        	1.0183482524e+05
0.00618268        	1.0186005029e+05
0.00621735        	1.0188595061e+05
0.00625201        	1.0191254602e+05
0.00628668        	1.0193983447e+05
0.00632135        	1.0196782638e+05
0.00635601        	1.0199652668e+05
0.00639068        	1.0202594805e+05
0.00642535        	1.0205609724e+05
0.00646001        	1.0208697876e+05
0.00649468        	1.0211859866e+05
0.00652934        	1.0215096312e+05
0.00656401        	1.0218407690e+05
0.00659868        	1.0221794084e+05
0.00663334        	1.0225255909e+05
0.00666801        	1.0228792919e+05
0.00670268        	1.0232404550e+05
0.00673734        	1.0236090579e+05
0.00677201        	1.0239851502e+05
0.00680667        	1.0243687110e+05
0.00684134        	1.0247598450e+05
0.00687601        	1.0251584996e+05
0.00691067        	1.0255645308e+05
0.00694534        	1.0259778341e+05
0.00698001        	1.0263984430e+05
0.00701467        	1.0268262447e+05
0.00704934        	1.0272610515e+05
0.007084          	1.0277026205e+05
0.00711867        	1.0281510274e+05
0.00715334        	1.0286062896e+05
0.007188          	1.0290685244e+05
0.00722267        	1.0295377688e+05
0.00725734        	1.0300138493e+05
0.007292          	1.0304967333e+05
0.00732667        	1.0309863667e+05
0.00736133        	1.0314830381e+05
0.007396          	1.0319866682e+05
0.00743067        	1.0324972834e+05
0.00746533        	1.0330146572e+05
0.0075            	1.0335388866e+05
0.00753731        	1.0341107123e+05
0.00757463        	1.0346905320e+05
0.00761194        	1.0352783057e+05
0.00764925        	1.0358736396e+05
0.00768657        	1.0364767056e+05
0.00772388        	1.0370879473e+05
0.00776119        	1.0377072749e+05
0.00779851        	1.0383347543e+05
0.00783582        	1.0389706947e+05
0.00787313        	1.0396149703e+05
0.00791111        	1.0402794945e+05
0.00794909        	1.0409527020e+05
0.00798707        	1.0416348651e+05
0.00802505        	1.0423260003e+05
0.00806303        	1.0430262188e+05
0.00810101        	1.0437354470e+05
0.00813977        	1.0444686598e+05
0.00817852        	1.0452117185e+05
0.00821728        	1.0459645127e+05
0.00825603        	1.0467270360e+05
0.00829479        	1.0474994539e+05
0.00833354        	1.0482819031e+05
0.0083723         	1.0490744491e+05
0.00841015        	1.0498585244e+05
0.008448          	1.0506524831e+05
0.00848586        	1.0514562952e+05
0.00852371        	1.0522700691e+05
0.00856156        	1.0530939070e+05
0.00859942        	1.0539280704e+05
0.00863727        	1.0547726292e+05
0.00867513        	1.0556276378e+05
0.00871298        	1.0564931866e+05
0.00875083        	1.0573693162e+05
0.00878869        	1.0582560435e+05
0.00882654        	1.0591537631e+05
0.00886439        	1.0600623549e+05
0.00890225        	1.0609822436e+05
0.0089401         	1.0619133200e+05
0.00897795        	1.0628559636e+05
0.00901581        	1.0638101839e+05
0.00905366        	1.0647762081e+05
0.00909006        	1.0657162908e+05
0.00912646        	1.0666677497e+05
0.00916285        	1.0676305083e+05
0.00919925        	1.0686045449e+05
0.00923565        	1.0695903452e+05
0.00927205        	1.0705878560e+05
0.00930844        	1.0715970971e+05
0.00934484        	1.0726184532e+05
0.00937932        	1.0735972164e+05
0.00941381        	1.0745871444e+05
0.00944829        	1.0755883733e+05
0.00948277        	1.0766011175e+05
0.00951725        	1.0776257612e+05
0.00955173        	1.0786626039e+05
0.00958622        	1.0797113758e+05
0.0096207         	1.0807720049e+05
0.00965518        	1.0818450875e+05
0.00968966        	1.0829308943e+05
0.00972414        	1.0840293932e+05
0.00975863        	1.0851404670e+05
0.00979311        	1.0862642957e+05
0.00982759        	1.0874012301e+05
0.00986207        	1.0885513139e+05
0.00989655        	1.0897143759e+05
0.00993104        	1.0908904950e+05
0.00996552        	1.0920800272e+05
0.01              	1.0932830584e+05
0.0100329         	1.0944429273e+05
0.0100658         	1.0956152270e+05
0.0100982         	1.0967839639e+05
0.0101307         	1.0979648097e+05
0.0101632         	1.0991583445e+05
0.0101956         	1.1003641104e+05
0.0102281         	1.1015821506e+05
0.0102601         	1.1027950203e+05
0.0102921         	1.1040200280e+05
0.0103241         	1.1052573160e+05
0.0103561         	1.1065069116e+05
0.0103881         	1.1077689509e+05
0.0104196         	1.1090239983e+05
0.0104511         	1.1102909658e+05
0.0104826         	1.1115699186e+05
0.0105142         	1.1128613001e+05
0.0105457         	1.1141650236e+05
0.0105772         	1.1154811660e+05
0.0106082         	1.1167877177e+05
0.0106392         	1.1181060046e+05
0.0106702         	1.1194359422e+05
0.0107012         	1.1207775913e+05
0.0107323         	1.1221309109e+05
0.0107633         	1.1234958192e+05
0.0107943         	1.1248725351e+05
0.0108247         	1.1262365389e+05
0.0108552         	1.1276121275e+05
0.0108857         	1.1289996704e+05
0.0109161         	1.1303985205e+05
0.0109466         	1.1318091158e+05
0.010977          	1.1332313514e+05
0.0110075         	1.1346653703e+05
0.011038          	1.1361114291e+05
0.0110684         	1.1375691054e+05
0.0110989         	1.1390384911e+05
0.0111293         	1.1405194853e+05
0.0111598         	1.1420121115e+05
0.0111903         	1.1435159595e+05
0.0112207         	1.1450308410e+05
0.0112512         	1.1465563980e+05
0.0112816         	1.1480930577e+05
0.0113121         	1.1496410751e+05
0.0113426         	1.1512000948e+05
0.011373          	1.1527698650e+05
0.0114027         	1.1543092068e+05
0.0114323         	1.1558587451e+05
0.011462          	1.1574188094e+05
0.0114916         	1.1589892269e+05
0.0115213         	1.1605698010e+05
0.011551          	1.1621603300e+05
0.0115806         	1.1637614698e+05
0.0116103         	1.1653729451e+05
0.0116399         	1.1669945810e+05
0.0116696         	1.1686260335e+05
0.0116992         	1.1702677333e+05
0.0117289         	1.1719195253e+05
0.0117586         	1.1735816343e+05
0.0117882         	1.1752536443e+05
0.0118179         	1.1769356132e+05
0.0118475         	1.1786275918e+05
0.0118772         	1.1803293798e+05
0.0119068         	1.1820409961e+05
0.0119365         	1.1837624272e+05
0.0119662         	1.1854935289e+05
0.0119958         	1.1872338333e+05
0.0120255         	1.1889840906e+05
0.0120551         	1.1907436113e+05
0.0120848         	1.1925124978e+05
0.0121145         	1.1942907419e+05
0.0121441         	1.1960784446e+05
0.0121738         	1.1978746935e+05
0.0122034         	1.1996803477e+05
0.0122331         	1.2014949152e+05
0.0122627         	1.2033184554e+05
0.0122924         	1.2051506287e+05
0.0123221         	1.2069915278e+05
0.0123517         	1.2088413191e+05
0.0123814         	1.2107002756e+05
0.012411          	1.2125685316e+05
0.0124407         	1.2144458643e+05
0.0124703         	1.2163318673e+05
0.0125            	1.2182261129e+05
0.0125309         	1.2202064399e+05
0.0125617         	1.2221962037e+05
0.0125926         	1.2241959634e+05
0.0126235         	1.2262055957e+05
0.0126547         	1.2282509583e+05
0.012686          	1.2303052601e+05
0.0127173         	1.2323687591e+05
0.0127485         	1.2344413645e+05
0.0127802         	1.2365525674e+05
0.012812          	1.2386730973e+05
0.0128437         	1.2408027068e+05
0.0128759         	1.2429739259e+05
0.012908          	1.2451552853e+05
0.0129402         	1.2473463561e+05
0.0129724         	1.2495470670e+05
0.0130051         	1.2517928011e+05
0.0130378         	1.2540483355e+05
0.0130705         	1.2563132401e+05
0.0131032         	1.2585869113e+05
0.0131359         	1.2608694398e+05
0.0131692         	1.2632024206e+05
0.0132025         	1.2655450489e+05
0.0132358         	1.2678966512e+05
0.0132691         	1.2702568167e+05
0.0133024         	1.2726267276e+05
0.0133356         	1.2750070194e+05
0.0133696         	1.2774461618e+05
0.0134036         	1.2798962347e+05
0.0134375         	1.2823569450e+05
0.0134715         	1.2848275344e+05
0.0135055         	1.2873079458e+05
0.0135402         	1.2898568167e+05
0.013575          	1.2924151795e+05
0.0136097         	1.2949837085e+05
0.0136445         	1.2975622890e+05
0.0136793         	1.3001508936e+05
0.013714          	1.3027491877e+05
0.0137497         	1.3054298679e+05
0.0137855         	1.3081212535e+05
0.0138212         	1.3108234813e+05
0.0138569         	1.3135366475e+05
0.0138926         	1.3162612430e+05
0.0139283         	1.3189947897e+05
0.0139641         	1.3217372567e+05
0.0140011         	1.3245888205e+05
0.0140381         	1.3274516494e+05
0.0140751         	1.3303256723e+05
0.0141121         	1.3332115283e+05
0.0141491         	1.3361099768e+05
0.0141861         	1.3390202699e+05
0.0142231         	1.3419425128e+05
0.01426           	1.3448755704e+05
0.014297          	1.3478213251e+05
0.014334          	1.3507781064e+05
0.014371          	1.3537445549e+05
0.014408          	1.3567212815e+05
0.014445          	1.3597106176e+05
0.014482          	1.3627123110e+05
0.014519          	1.3657243966e+05
0.014556          	1.3687478086e+05
0.014593          	1.3717827681e+05
0.01463           	1.3748297544e+05
0.014667          	1.3778865626e+05
0.014704          	1.3809533828e+05
0.014741          	1.3840307241e+05
0.014778          	1.3871188159e+05
0.014815          	1.3902204335e+05
0.014852          	1.3933355868e+05
0.014889          	1.3964626210e+05
0.014926          	1.3996014950e+05
0.014963          	1.4027528970e+05
0.015             	1.4059168170e+05
0.0150379         	1.4091675983e+05
0.0150758         	1.4124318964e+05
0.0151136         	1.4157112698e+05
0.0151515         	1.4190033770e+05
0.0151894         	1.4223088444e+05
0.0152273         	1.4256293395e+05
0.0152652         	1.4289631105e+05
0.0153024         	1.4322535267e+05
0.0153396         	1.4355574937e+05
0.0153763         	1.4388160560e+05
0.0154129         	1.4420895810e+05
0.0154495         	1.4453752263e+05
0.0154861         	1.4486740445e+05
0.0155221         	1.4519272595e+05
0.015558          	1.4551946847e+05
0.015594          	1.4584763880e+05
0.0156293         	1.4617106050e+05
0.0156646         	1.4649571096e+05
0.0156999         	1.4682158744e+05
0.0157352         	1.4714887252e+05
0.0157698         	1.4747136415e+05
0.0158044         	1.4779515053e+05
0.015839          	1.4812027741e+05
0.0158736         	1.4844676506e+05
0.0159082         	1.4877451121e+05
0.0159428         	1.4910355142e+05
0.0159767         	1.4942693406e+05
0.0160105         	1.4975186689e+05
0.0160444         	1.5007822838e+05
0.0160782         	1.5040604533e+05
0.0161121         	1.5073517985e+05
0.0161459         	1.5106581812e+05
0.0161798         	1.5139769353e+05
0.0162136         	1.5173099571e+05
0.0162475         	1.5206596107e+05
0.0162813         	1.5240241771e+05
0.0163152         	1.5274028664e+05
0.016349          	1.5307980285e+05
0.0163829         	1.5342054811e+05
0.0164167         	1.5376278936e+05
0.0164506         	1.5410653458e+05
0.0164844         	1.5445197867e+05
0.0165183         	1.5479896911e+05
0.0165521         	1.5514751969e+05
0.016586          	1.5549773548e+05
0.0166198         	1.5584946426e+05
0.0166537         	1.5620268707e+05
0.0166876         	1.5655722919e+05
0.0167214         	1.5691150953e+05
0.0167553         	1.5726837379e+05
0.0167891         	1.5762704031e+05
0.016823          	1.5798735855e+05
0.0168568         	1.5834901198e+05
0.0168907         	1.5871199798e+05
0.0169245         	1.5907643486e+05
0.0169584         	1.5944066701e+05
0.0169922         	1.5980767166e+05
0.0170261         	1.6017590910e+05
0.0170599         	1.6054533714e+05
0.0170938         	1.6091585177e+05
0.0171276         	1.6128771754e+05
0.0171615         	1.6166062881e+05
0.0171953         	1.6203432729e+05
0.0172292         	1.6240740292e+05
0.017263          	1.6278281338e+05
0.0172969         	1.6315760421e+05
0.0173307         	1.6353469552e+05
0.0173646         	1.6391125202e+05
0.0173984         	1.6429028681e+05
0.0174323         	1.6466869827e+05
0.0174661         	1.6504916505e+05
0.0175            	1.6542886188e+05
0.0175362         	1.6583770578e+05
0.0175725         	1.6624743331e+05
0.0176082         	1.6665132932e+05
0.0176439         	1.6705567996e+05
0.0176796         	1.6746063880e+05
0.0177153         	1.6786603462e+05
0.017751          	1.6827170083e+05
0.0177867         	1.6867774689e+05
0.0178224         	1.6908419377e+05
0.0178581         	1.6949108686e+05
0.0178938         	1.6989865671e+05
0.0179295         	1.7030687603e+05
0.0179652         	1.7071622958e+05
0.0180009         	1.7112610156e+05
0.0180366         	1.7153630789e+05
0.0180723         	1.7194645448e+05
0.0181079         	1.7235695304e+05
0.0181436         	1.7276780805e+05
0.0181793         	1.7317952820e+05
0.018215          	1.7359144811e+05
0.0182507         	1.7400329490e+05
0.0182864         	1.7441512297e+05
0.0183221         	1.7482739021e+05
0.0183578         	1.7524023153e+05
0.0183935         	1.7565351270e+05
0.0184292         	1.7606704151e+05
0.0184649         	1.7648113945e+05
0.0185006         	1.7689575444e+05
0.0185355         	1.7730100720e+05
0.0185704         	1.7770635268e+05
0.0186052         	1.7811196475e+05
0.0186401         	1.7851799201e+05
0.018675          	1.7892458496e+05
0.0187099         	1.7933161664e+05
0.0187447         	1.7973881433e+05
0.0187796         	1.8014621539e+05
0.0188145         	1.8055343391e+05
0.0188483         	1.8094936301e+05
0.0188822         	1.8135105458e+05
0.0189161         	1.8175994157e+05
0.0189499         	1.8217378400e+05
0.0189838         	1.8259334995e+05
0.0190177         	1.8302105918e+05
0.0190516         	1.8345376444e+05
0.0190854         	1.8389188840e+05
0.0191181         	1.8431960146e+05
0.0191508         	1.8475216061e+05
0.0191822         	1.8517281791e+05
0.0192137         	1.8559793891e+05
0.0192451         	1.8602658824e+05
0.0192766         	1.8645997178e+05
0.019308          	1.8689721205e+05
0.0193395         	1.8733840089e+05
0.0193709         	1.8778258661e+05
0.0194024         	1.8823121574e+05
0.0194338         	1.8868544639e+05
0.0194636         	1.8912002228e+05
0.0194934         	1.8955857959e+05
0.0195232         	1.9000267970e+05
0.019553          	1.9044992990e+05
0.019581          	1.9087242861e+05
0.0196089         	1.9129799084e+05
0.0196368         	1.9172640519e+05
0.0196648         	1.9215769902e+05
0.0196927         	1.9259307081e+05
0.0197206         	1.9303123575e+05
0.0197486         	1.9347303865e+05
0.0197765         	1.9391747980e+05
0.0198045         	1.9436557618e+05
0.0198324         	1.9481638652e+05
0.0198603         	1.9526973169e+05
0.0198883         	1.9572494862e+05
0.0199162         	1.9618354295e+05
0.0199441         	1.9664269381e+05
0.0199721         	1.9710200723e+05
0.02              	1.9756312890e+05
0.0200272         	1.9815583278e+05
0.0200543         	1.9875722165e+05
0.0200815         	1.9935927489e+05
0.0201087         	1.9995868196e+05
0.0201356         	2.0054717507e+05
0.0201624         	2.0113537404e+05
0.0201887         	2.0170878451e+05
0.0202147         	2.0227279708e+05
0.0202403         	2.0282537212e+05
0.0202655         	2.0336146613e+05
0.02029           	2.0388180942e+05
0.020314          	2.0438487520e+05
0.0203375         	2.0487200238e+05
0.020361          	2.0535508195e+05
0.0203843         	2.0582860051e+05
0.0204075         	2.0629682884e+05
0.0204308         	2.0676131915e+05
0.0204538         	2.0721687598e+05
0.0204765         	2.0766314587e+05
0.0204993         	2.0810867442e+05
0.0205212         	2.0853950052e+05
0.020543          	2.0896565661e+05
0.0205647         	2.0938877851e+05
0.0205865         	2.0980918131e+05
0.0206082         	2.1022463984e+05
0.0206297         	2.1063389022e+05
0.0206515         	2.1104532085e+05
0.0206732         	2.1145233311e+05
0.020695          	2.1185390139e+05
0.0207167         	2.1225043025e+05
0.0207385         	2.1264179222e+05
0.0207599         	2.1302291123e+05
0.0207817         	2.1340655964e+05
0.0208032         	2.1378241017e+05
0.0208246         	2.1415711361e+05
0.0208458         	2.1452390497e+05
0.0208671         	2.1489108388e+05
0.0208883         	2.1525777002e+05
0.0209098         	2.1562659750e+05
0.0209312         	2.1598890172e+05
0.0209527         	2.1634751998e+05
0.0209745         	2.1670707672e+05
0.0209966         	2.1706797531e+05
0.0210184         	2.1742005107e+05
0.0210402         	2.1776993266e+05
0.021062          	2.1811767669e+05
0.0210838         	2.1846277170e+05
0.0211056         	2.1880858772e+05
0.0211277         	2.1915733986e+05
0.0211502         	2.1951163975e+05
0.0211727         	2.1986187672e+05
0.0211952         	2.2020989070e+05
0.0212177         	2.2055530051e+05
0.0212406         	2.2090533443e+05
0.0212635         	2.2125067968e+05
0.0212868         	2.2159891570e+05
0.0213106         	2.2194949275e+05
0.0213349         	2.2230657256e+05
0.0213592         	2.2266055887e+05
0.021384          	2.2302536538e+05
0.0214088         	2.2338936608e+05
0.0214341         	2.2375620881e+05
0.0214595         	2.2411622766e+05
0.0214855         	2.2448136199e+05
0.0215115         	2.2484175179e+05
0.0215383         	2.2521009449e+05
0.021565          	2.2557432978e+05
0.0215925         	2.2594674687e+05
0.02162           	2.2631371039e+05
0.0216475         	2.2667829130e+05
0.021675          	2.2704276728e+05
0.0217025         	2.2740527508e+05
0.021731          	2.2777925612e+05
0.0217594         	2.2815214993e+05
0.0217891         	2.2853577035e+05
0.0218187         	2.2891841090e+05
0.0218483         	2.2930013264e+05
0.0218793         	2.2969790227e+05
0.0219104         	2.3009001139e+05
0.0219414         	2.3048056010e+05
0.0219724         	2.3086708836e+05
0.0220035         	2.3124990853e+05
0.0220366         	2.3165694430e+05
0.0220697         	2.3206285254e+05
0.0221028         	2.3246688693e+05
0.0221359         	2.3286691487e+05
0.022169          	2.3326497250e+05
0.0222021         	2.3365903405e+05
0.0222352         	2.3405179077e+05
0.0222683         	2.3443978639e+05
0.0223014         	2.3482987127e+05
0.0223345         	2.3522086354e+05
0.0223676         	2.3561024377e+05
0.0224007         	2.3599597140e+05
0.0224338         	2.3637724987e+05
0.0224669         	2.3675264814e+05
0.0225            	2.3711897284e+05
0.0225347         	2.3749716702e+05
0.0225699         	2.3787714308e+05
0.0226052         	2.3825639676e+05
0.0226404         	2.3863850869e+05
0.0226756         	2.3901560063e+05
0.0227108         	2.3938984865e+05
0.022746          	2.3975899608e+05
0.0227812         	2.4012889678e+05
0.0228159         	2.4049153406e+05
0.0228506         	2.4084636705e+05
0.0228853         	2.4119964968e+05
0.0229199         	2.4154795771e+05
0.0229546         	2.4189313542e+05
0.0229893         	2.4223109411e+05
0.0230239         	2.4256086011e+05
0.0230586         	2.4288578334e+05
0.0230933         	2.4320144601e+05
0.0231286         	2.4351737295e+05
0.0231639         	2.4383168150e+05
0.0231992         	2.4414289683e+05
0.0232345         	2.4445495118e+05
0.0232705         	2.4477292961e+05
0.0233066         	2.4509049049e+05
0.0233426         	2.4540554390e+05
0.0233786         	2.4571540468e+05
0.0234147         	2.4601482859e+05
0.0234515         	2.4631169815e+05
0.0234884         	2.4660145146e+05
0.0235253         	2.4688318251e+05
0.0235621         	2.4716004766e+05
0.023599          	2.4743599657e+05
0.0236359         	2.4770249449e+05
0.0236727         	2.4796685766e+05
0.0237096         	2.4822909550e+05
0.0237465         	2.4848963912e+05
0.0237833         	2.4874579211e+05
0.0238202         	2.4899647927e+05
0.0238571         	2.4924198638e+05
0.0238939         	2.4948158737e+05
0.0239308         	2.4971714957e+05
0.0239665         	2.4994208829e+05
0.0240021         	2.5016763082e+05
0.0240377         	2.5039503943e+05
0.0240734         	2.5062141949e+05
0.024109          	2.5084761610e+05
0.0241447         	2.5107732013e+05
0.0241803         	2.5130940959e+05
0.0242159         	2.5154087442e+05
0.0242516         	2.5177353959e+05
0.0242872         	2.5200590143e+05
0.0243228         	2.5223566286e+05
0.0243585         	2.5246796719e+05
0.0243941         	2.5270322611e+05
0.0244298         	2.5294092641e+05
0.0244633         	2.5316298755e+05
0.0244969         	2.5338650600e+05
0.0245304         	2.5360987608e+05
0.0245617         	2.5381846627e+05
0.024593          	2.5402708395e+05
0.0246243         	2.5423515905e+05
0.0246556         	2.5444336977e+05
0.0246869         	2.5465312824e+05
0.0247182         	2.5486628740e+05
0.0247495         	2.5508090786e+05
0.0247809         	2.5529886849e+05
0.0248122         	2.5551913892e+05
0.0248435         	2.5574193203e+05
0.0248748         	2.5596876311e+05
0.0249061         	2.5619674201e+05
0.0249374         	2.5642621477e+05
0.0249687         	2.5665579042e+05
0.025             	2.5688782961e+05
0.0250281         	2.5709767949e+05
0.0250562         	2.5730766129e+05
0.0250843         	2.5751916531e+05
0.0251127         	2.5773310132e+05
0.0251415         	2.5795140439e+05
0.0251706         	2.5817252673e+05
0.0252001         	2.5839528521e+05
0.0252295         	2.5861599082e+05
0.0252594         	2.5883810562e+05
0.0252893         	2.5905908204e+05
0.0253196         	2.5928425462e+05
0.0253499         	2.5951030433e+05
0.0253801         	2.5973473078e+05
0.0254104         	2.5995775393e+05
0.0254407         	2.6017918929e+05
0.0254714         	2.6040505318e+05
0.0255022         	2.6063262240e+05
0.0255334         	2.6086491276e+05
0.0255651         	2.6110419195e+05
0.0255974         	2.6134746980e+05
0.0256302         	2.6159653432e+05
0.025663          	2.6184790705e+05
0.0256964         	2.6210564293e+05
0.0257304         	2.6237074022e+05
0.0257651         	2.6264455708e+05
0.0257998         	2.6291919096e+05
0.0258352         	2.6319689585e+05
0.0258706         	2.6347290239e+05
0.0259061         	2.6374823183e+05
0.0259423         	2.6402918934e+05
0.0259785         	2.6431144149e+05
0.0260156         	2.6460944684e+05
0.0260527         	2.6491264823e+05
0.0260908         	2.6522706045e+05
0.0261289         	2.6554413929e+05
0.026167          	2.6586535728e+05
0.0262062         	2.6619785579e+05
0.0262454         	2.6653334729e+05
0.0262846         	2.6687567391e+05
0.0263238         	2.6721812678e+05
0.026363          	2.6755858257e+05
0.0264022         	2.6790044373e+05
0.0264414         	2.6824283977e+05
0.0264806         	2.6858537491e+05
0.0265198         	2.6892751377e+05
0.0265591         	2.6926915166e+05
0.0265983         	2.6961257559e+05
0.0266375         	2.6995646123e+05
0.0266767         	2.7030312573e+05
0.0267159         	2.7064870701e+05
0.0267551         	2.7099498205e+05
0.0267943         	2.7134018137e+05
0.0268335         	2.7168293575e+05
0.0268705         	2.7200655862e+05
0.0269076         	2.7232807951e+05
0.0269446         	2.7264846097e+05
0.0269816         	2.7296963856e+05
0.0270186         	2.7329135200e+05
0.0270557         	2.7361391038e+05